 &FCI NORB=          18 , NELEC=          18 , MS2=           0 ,
 ORBSYM=1,1,1,1,1,1,1,1,1,1,1,1,1,1,1,1,1,1,
 ISYM=0,
 /
   2.8655380192452555                1           1           1           1
   2.0019336881696570E-010           2           1           1           1
 -0.25957095195024915                3           1           1           1
   3.3651007219463736E-011           4           1           1           1
   6.4257963788288103E-002           7           1           1           1
  -9.4820518624361139E-012          10           1           1           1
  -1.2656792280907325E-011          13           1           1           1
  0.21104573425258202               14           1           1           1
 -0.12986618460764041               17           1           1           1
  -2.3627211298560269E-011          18           1           1           1
   2.4907186421659016                2           1           2           1
  -1.0495401802420451E-011           3           1           2           1
  0.27885906444610115                4           1           2           1
   2.2803820463879187E-012           7           1           2           1
  -8.1298968367321242E-002          10           1           2           1
 -0.10251287242235174               13           1           2           1
   8.3332230005339625E-012          14           1           2           1
  -5.5329386905444977E-012          17           1           2           1
 -0.19693416754966644               18           1           2           1
   4.1469257275637855E-002           3           1           3           1
  -3.5116029821393585E-012           4           1           3           1
  -6.6235478366276157E-003           7           1           3           1
   1.2568140972391006E-012          10           1           3           1
   1.0969944570782264E-012          13           1           3           1
  -3.1440664865993645E-002          14           1           3           1
   2.4847450789740943E-002          17           1           3           1
   2.5813179718725543E-012          18           1           3           1
   4.7623782565639504E-002           4           1           4           1
   1.0002616139884180E-012           7           1           4           1
  -1.0848418420633733E-002          10           1           4           1
  -2.0571256069603243E-002          13           1           4           1
   2.9783437001384971E-012          14           1           4           1
  -1.6352015227982797E-012          17           1           4           1
  -3.2521397512929019E-002          18           1           4           1
   1.9384631643421343E-002           5           1           5           1
   1.6822002233025934E-012           8           1           5           1
   5.1091075814468923E-014           9           1           5           1
  -1.5988855014751561E-002          11           1           5           1
  -1.6647669937070411E-002          12           1           5           1
   1.7618562858645603E-012          16           1           5           1
   1.9384631643421205E-002           6           1           6           1
  -5.1106254644883720E-014           8           1           6           1
   1.6822758464041243E-012           9           1           6           1
  -1.6647669937070380E-002          11           1           6           1
   1.5988855014751460E-002          12           1           6           1
  -1.7615406746121498E-012          15           1           6           1
   1.9777700775193030E-002           7           1           7           1
   1.3480876571297928E-012          10           1           7           1
  -1.8920169250757901E-012          13           1           7           1
   1.8475251608829967E-002          14           1           7           1
   1.6070589863557149E-002          17           1           7           1
  -4.0061270273339389E-014          18           1           7           1
   2.2619920550657983E-002           8           1           8           1
  -1.3438924452435774E-012          11           1           8           1
  -1.4869355746682800E-012          12           1           8           1
   7.2883850979761199E-004          15           1           8           1
   2.3671611150195879E-002          16           1           8           1
   2.2619920550657872E-002           9           1           9           1
  -1.4872530290643837E-012          11           1           9           1
   1.3440294883981796E-012          12           1           9           1
  -2.3671611150195827E-002          15           1           9           1
   7.2883850979761590E-004          16           1           9           1
   2.5739099978719704E-002          10           1          10           1
  -1.6867221852003098E-002          13           1          10           1
   1.5859514222726911E-013          14           1          10           1
   2.4158459521056441E-012          17           1          10           1
   1.6910759875328953E-002          18           1          10           1
   2.7586133513369353E-002          11           1          11           1
   1.5184520307798266E-012          15           1          11           1
  -1.4596362313268330E-012          16           1          11           1
   2.7586133513369301E-002          12           1          12           1
  -1.4595763833669118E-012          15           1          12           1
  -1.5185890739344288E-012          16           1          12           1
   2.8943466027985226E-002          13           1          13           1
  -2.0700525644209815E-012          14           1          13           1
  -1.1910095780161105E-012          17           1          13           1
   5.2287252325998543E-003          18           1          13           1
   3.3603133367763466E-002          14           1          14           1
  -4.4114966435839977E-003          17           1          14           1
  -1.6960486834416422E-012          18           1          14           1
   2.4900378981591160E-002          15           1          15           1
   2.4900378981591142E-002          16           1          16           1
   3.6521325611713944E-002          17           1          17           1
   1.9571447327365599E-012          18           1          17           1
   2.6272929878709456E-002          18           1          18           1
   2.8655596245689803                2           2           1           1
  -1.0552329463790061E-011           3           2           1           1
  0.27977369835592603                4           2           1           1
   1.9812383070944017E-012           7           2           1           1
  -7.3365305306863970E-002          10           2           1           1
 -0.10951429294361895               13           2           1           1
   8.1774136073686776E-012          14           2           1           1
  -5.8329174823512631E-012          17           2           1           1
 -0.19463172174207555               18           2           1           1
  -2.0019059553199353E-010           2           2           2           1
 -0.26098777186841193                3           2           2           1
  -1.1212361849524330E-011           4           2           2           1
   5.6794873297509998E-002           7           2           2           1
   3.2672371752529017E-012          10           2           2           1
   4.1048137111587835E-012          13           2           2           1
  0.20718499204221560               14           2           2           1
 -0.13734175489123279               17           2           2           1
   7.9370329753025715E-012          18           2           2           1
   1.6845791254993525E-015           3           2           3           1
  -4.3683980612986673E-002           4           2           3           1
  -2.2590436465907970E-015           7           2           3           1
   1.5669177461383570E-002          10           2           3           1
   1.3583779586168132E-002          13           2           3           1
  -3.4928657188793011E-015          14           2           3           1
   3.2160897874176649E-002          18           2           3           1
  -1.8759814665245123E-015           4           2           4           1
   1.2427364916977393E-002           7           2           4           1
   2.2594773274597912E-015          10           2           4           1
  -4.0748654450695199E-015          13           2           4           1
   3.7042418162283430E-002          14           2           4           1
  -2.0348578965580483E-002          17           2           4           1
   5.1261078715114650E-015          18           2           4           1
  -3.4799637130267236E-015           5           2           5           1
   2.1008586421482602E-002           8           2           5           1
   6.3817440509074006E-004           9           2           5           1
   2.8939524387983084E-015          11           2           5           1
   3.1450536619459513E-015          12           2           5           1
   9.0647432616983159E-006          15           2           5           1
   2.1983762633756641E-002          16           2           5           1
  -3.0080105073437835E-015           6           2           6           1
  -6.3817440509067415E-004           8           2           6           1
   2.1008586421482470E-002           9           2           6           1
   2.5500435096859064E-015          11           2           6           1
  -2.3986888864069300E-015          12           2           6           1
  -2.1983762633756568E-002          15           2           6           1
   9.0647432616905096E-006          16           2           6           1
  -1.1235803953901780E-014           7           2           7           1
   1.6926177822479124E-002          10           2           7           1
  -2.3652827821905462E-002          13           2           7           1
  -8.0806401066974010E-015          14           2           7           1
  -1.1728600946350753E-014          17           2           7           1
  -4.6613892346523110E-004          18           2           7           1
   3.9379849207932249E-015           8           2           8           1
  -1.6670016258015653E-002          11           2           8           1
  -1.8446722781729832E-002          12           2           8           1
   4.2622155804750150E-015          16           2           8           1
   3.5596525727044082E-015           9           2           9           1
  -1.8446722781729829E-002          11           2           9           1
   1.6670016258015556E-002          12           2           9           1
  -3.4274883278784252E-015          15           2           9           1
   1.4056681166274565E-014          10           2          10           1
  -1.3270634591222574E-014          13           2          10           1
   1.9288787223773747E-003          14           2          10           1
   2.9893731647384368E-002          17           2          10           1
   2.3544534377695214E-015          18           2          10           1
  -4.6716103208055415E-015          11           2          11           1
   1.8950581503312872E-002          15           2          11           1
  -1.8215658971036226E-002          16           2          11           1
  -4.9491660769618306E-015          12           2          12           1
  -1.8215658971036244E-002          15           2          12           1
  -1.8950581503312885E-002          16           2          12           1
   1.6108642197920631E-014          13           2          13           1
  -2.5675411989679067E-002          14           2          13           1
  -1.4684144201882146E-002          17           2          13           1
  -3.1970953662252555E-015          18           2          13           1
  -4.1283166121730552E-015          14           2          14           1
  -1.0974944911201767E-014          17           2          14           1
  -2.1093087188543962E-002          18           2          14           1
   3.3502931331974573E-015          15           2          15           1
   4.6768144912334719E-015          16           2          16           1
  -9.6689149742257285E-015          17           2          17           1
   2.4401841958011199E-002          18           2          17           1
  -4.6117623608843417E-015          18           2          18           1
  0.83282687010296341                3           3           1           1
  -3.5201120664185570E-011           4           3           1           1
   2.2541773600233975E-002           7           3           1           1
   1.1915024522579643E-011          10           3           1           1
   5.2350346280150006E-012          13           3           1           1
 -0.19773535551992014               14           3           1           1
  0.16789752410952666               17           3           1           1
   1.5482171100700270E-011          18           3           1           1
   2.2381835967921759E-014           3           3           2           1
 -0.43797508606224445                4           3           2           1
  -2.0192181260370035E-015           7           3           2           1
  0.14823631424026479               10           3           2           1
   6.4928342636173378E-002          13           3           2           1
  -1.6507628597395296E-014          14           3           2           1
   1.3877787807814457E-014          17           3           2           1
  0.19283767110807415               18           3           2           1
  -8.9229087665209025E-003           3           3           3           1
   4.8134036361759114E-013           4           3           3           1
   4.8729516794433743E-003           7           3           3           1
  -6.1196056902468321E-014          10           3           3           1
  -1.9994466152195578E-013          13           3           3           1
   8.8386699452321152E-003          14           3           3           1
  -5.1879672698231880E-003          17           3           3           1
  -3.2433127364339676E-013          18           3           3           1
  -1.1944180764980347E-002           4           3           4           1
   3.6764211466810970E-014           7           3           4           1
   7.0093528521496841E-003          10           3           4           1
   2.2997672586228608E-003          13           3           4           1
  -3.3537070147880710E-013          14           3           4           1
   3.5647483229150900E-013          17           3           4           1
   9.8161657666450148E-003          18           3           4           1
   2.0484356415972214E-002           5           3           5           1
   7.8589034151893555E-013           8           3           5           1
   2.3861555092929976E-014           9           3           5           1
  -7.8134068257554624E-003          11           3           5           1
  -8.1353553959442916E-003          12           3           5           1
   4.2191077020969914E-013          16           3           5           1
   2.0484356415972071E-002           6           3           6           1
  -2.3877167604213767E-014           8           3           6           1
   7.8593208330257625E-013           9           3           6           1
  -8.1353553959442760E-003          11           3           6           1
   7.8134068257554208E-003          12           3           6           1
  -4.2172884108515607E-013          15           3           6           1
   1.9196470687816193E-002           7           3           7           1
   7.4735009847337608E-013          10           3           7           1
  -3.6015461446492480E-013          13           3           7           1
   1.7004888468475634E-003          14           3           7           1
   1.2389551617493791E-002          17           3           7           1
   2.3552340633337110E-013          18           3           7           1
   2.1116162747927641E-002           8           3           8           1
  -3.2834802585202105E-013          11           3           8           1
  -3.6326150421039927E-013          12           3           8           1
   3.4837035028880727E-004          15           3           8           1
   1.1314560574720285E-002          16           3           8           1
   2.1116162747927526E-002           9           3           9           1
  -3.6340548625890534E-013          11           3           9           1
   3.2841329482280468E-013          12           3           9           1
  -1.1314560574720261E-002          15           3           9           1
   3.4837035028880076E-004          16           3           9           1
   1.8367515066450738E-002          10           3          10           1
  -1.1775327154093348E-002          13           3          10           1
   2.5514594777231725E-013          14           3          10           1
   4.0500675729804314E-013          17           3          10           1
   1.8629015029194181E-003          18           3          10           1
   1.2573831241969783E-002          11           3          11           1
   3.3846384896174531E-013          15           3          11           1
  -3.2538815392113563E-013          16           3          11           1
   1.2573831241969768E-002          12           3          12           1
  -3.2534825528118816E-013          15           3          12           1
  -3.3856251135944149E-013          16           3          12           1
   8.8179570813869974E-003          13           3          13           1
  -2.3104348295666099E-014          14           3          13           1
  -5.6372918486036205E-013          17           3          13           1
  -7.4741626181590330E-003          18           3          13           1
  -4.1538107941043109E-003          14           3          14           1
   1.1362175399154238E-002          17           3          14           1
   3.5111757251682363E-013          18           3          14           1
   1.1041462600665830E-002          15           3          15           1
   1.1041462600665811E-002          16           3          16           1
   8.6778429720508650E-003          17           3          17           1
   7.5755374195907166E-015          18           3          17           1
  -4.6103765933037362E-003          18           3          18           1
  0.83743595466997822                4           4           1           1
   1.5239642880970905E-011           7           4           1           1
  -8.2084374513670955E-002          10           4           1           1
 -0.15870248507612283               13           4           1           1
   1.9469689749307406E-011          14           4           1           1
  -9.4478730394698118E-012          17           4           1           1
 -0.20093278144667545               18           4           1           1
  -2.2231348706380771E-014           4           4           2           1
  0.18960863646309137                7           4           2           1
   6.9041994343876922E-015          10           4           2           1
  -1.8009899127591211E-014          13           4           2           1
  0.24225383274271031               14           4           2           1
 -0.11744166073416212               17           4           2           1
   2.7908231281514873E-014          18           4           2           1
  -1.3009636541856219E-002           4           4           3           1
  -2.8242273970857656E-013           7           4           3           1
  -1.0555742276765895E-003          10           4           3           1
   7.8137926729246431E-003          13           4           3           1
  -4.5684452314870283E-013          14           4           3           1
   1.3731171148029242E-013          17           4           3           1
   8.3573492866206127E-003          18           4           3           1
   5.3000750896382495E-013           4           4           4           1
   1.4717997201903355E-003           7           4           4           1
  -2.1033728144631558E-013          10           4           4           1
  -1.9515357212174234E-013          13           4           4           1
   9.9228080032416240E-003          14           4           4           1
  -6.6984467963050204E-003          17           4           4           1
  -3.7675570128958835E-013          18           4           4           1
  -8.0300658700585559E-013           5           4           5           1
  -2.2410885471468137E-002           8           4           5           1
  -6.8077181474170568E-004           9           4           5           1
   3.6634324046547206E-013          11           4           5           1
   3.8137722147002506E-013          12           4           5           1
  -4.5291242324811513E-006          15           4           5           1
  -1.0984005745222868E-002          16           4           5           1
  -8.0348921960293751E-013           6           4           6           1
   6.8077181474165060E-004           8           4           6           1
  -2.2410885471467995E-002           9           4           6           1
   3.8167884651441053E-013          11           4           6           1
  -3.6660648475295154E-013          12           4           6           1
   1.0984005745222843E-002          15           4           6           1
  -4.5291242324698756E-006          16           4           6           1
  -7.4916461922924782E-013           7           4           7           1
  -2.1014013536274901E-002          10           4           7           1
   9.9803729624595855E-003          13           4           7           1
  -1.9284573937738969E-013          14           4           7           1
  -4.5017245139944428E-013          17           4           7           1
  -3.5399624140759166E-003          18           4           7           1
  -9.6849785136132738E-013           8           4           8           1
   9.5242422733138269E-003          11           4           8           1
   1.0539345265327670E-002          12           4           8           1
  -1.4618081051187559E-014          15           4           8           1
  -4.7551892978781041E-013          16           4           8           1
  -9.6809192606794880E-013           9           4           9           1
   1.0539345265327666E-002          11           4           9           1
  -9.5242422733137731E-003          12           4           9           1
   4.7503472509757838E-013          15           4           9           1
  -1.4554329963445412E-014          16           4           9           1
  -8.8802923348119123E-013          10           4          10           1
   5.7775659256797951E-013          13           4          10           1
  -1.0845623481624468E-002          14           4          10           1
  -9.8292372306372344E-003          17           4          10           1
   3.0423580321681243E-014          18           4          10           1
  -5.8772214525659727E-013          11           4          11           1
  -8.8519338569171147E-003          15           4          11           1
   8.5086469955332755E-003          16           4          11           1
  -5.8759247467676801E-013          12           4          12           1
   8.5086469955332963E-003          15           4          12           1
   8.8519338569171130E-003          16           4          12           1
  -3.8668894475346605E-013          13           4          13           1
   3.5484520291497331E-003          14           4          13           1
   1.2479987938315429E-002          17           4          13           1
   1.9916533700037320E-013          18           4          13           1
   1.4487467215468230E-013          14           4          14           1
  -3.8258133640278746E-013          17           4          14           1
  -7.3631225880881734E-003          18           4          14           1
  -4.6410347353392778E-013          15           4          15           1
  -4.6478099147151397E-013          16           4          16           1
  -3.4975754931165781E-013          17           4          17           1
   2.3931046366018199E-003          18           4          17           1
   2.1468200481211674E-013          18           4          18           1
  0.79385272482287117                5           5           1           1
   3.6528663774348935E-011           8           5           1           1
   1.1092238239029939E-012           9           5           1           1
 -0.20665754308167272               11           5           1           1
 -0.21517279155108165               12           5           1           1
   8.5070839261902620E-015          15           5           1           1
   1.9958368291383977E-011          16           5           1           1
   6.3993949028784414E-014           5           5           2           1
  0.45443296474040235                8           5           2           1
   1.3804236092261446E-002           9           5           2           1
  -2.0511370379949767E-014          11           5           2           1
  -1.9900747716405931E-014          12           5           2           1
   1.0231497409900897E-004          15           5           2           1
  0.24813368007571227               16           5           2           1
  -6.9552369691884674E-003           5           5           3           1
  -3.5931584855923571E-013           8           5           3           1
  -1.0913036967152845E-014           9           5           3           1
   6.2503777659580926E-003          11           5           3           1
   6.5079222954784448E-003          12           5           3           1
  -3.4243961832824965E-013          16           5           3           1
   3.4490346776522296E-013           5           5           4           1
   8.3337989060402566E-003           8           5           4           1
   2.5315445086631434E-004           9           5           4           1
  -2.6499896027543102E-013          11           5           4           1
  -2.7586006395852181E-013          12           5           4           1
   3.7483482406566130E-006          15           5           4           1
   9.0904723511899613E-003          16           5           4           1
  -3.8325712999664752E-003           7           5           5           1
   2.0505906001000440E-013          10           5           5           1
   2.2067070393205768E-013          13           5           5           1
  -9.3399822747209926E-003          14           5           5           1
   5.4096249104625491E-003          17           5           5           1
   2.8843680915935366E-013          18           5           5           1
  -6.0603296469716184E-014           8           5           7           1
  -1.8435773740943517E-015           9           5           7           1
  -1.2518574690285123E-003          11           5           7           1
  -1.3034397981228399E-003          12           5           7           1
   8.8391533675791223E-014          16           5           7           1
   5.4410876542547639E-003          10           5           8           1
   5.9218511396111617E-003          13           5           8           1
  -4.0665170883413815E-013          14           5           8           1
   2.3453071082424337E-013          17           5           8           1
   7.7474904178507610E-003          18           5           8           1
   1.6528303271513302E-004          10           5           9           1
   1.7988710673997631E-004          13           5           9           1
  -1.2348561301105121E-014          14           5           9           1
   7.1223409114917757E-015          17           5           9           1
   2.3534425349543123E-004          18           5           9           1
   7.5063219528992420E-014          11           5          10           1
   7.8141920017982258E-014          12           5          10           1
  -8.1140610577376798E-007          15           5          10           1
  -1.9678173682170733E-003          16           5          10           1
  -1.7121373763195891E-013          13           5          11           1
   7.2728023038538406E-003          14           5          11           1
  -4.2054980074932337E-003          17           5          11           1
  -2.2675871597099828E-013          18           5          11           1
  -1.7823329617749906E-013          13           5          12           1
   7.5724754624654604E-003          14           5          12           1
  -4.3787840145626915E-003          17           5          12           1
  -2.3606030324918592E-013          18           5          12           1
  -1.4081516357402978E-006          15           5          13           1
  -3.4150411565671271E-003          16           5          13           1
   2.5707127399021701E-013          16           5          14           1
   3.1889285559131553E-006          18           5          15           1
   2.3389406730855988E-013          17           5          16           1
   7.7337709855950952E-003          18           5          16           1
  0.79385272482286573                6           6           1           1