 &FCI NORB=          18 , NELEC=          18 , MS2=           0 ,
 ORBSYM=1,1,1,1,1,1,1,1,1,1,1,1,1,1,1,1,1,1,
 ISYM=0,
 /
   2.8655380192452555                1           1           1           1
   2.0019340524615869E-010           2           1           1           1
 -0.25957095195024915                3           1           1           1
   3.3650993341675928E-011           4           1           1           1
   6.4257963788288117E-002           7           1           1           1
  -9.4820588013300178E-012          10           1           1           1
  -1.2656774933672565E-011          13           1           1           1
  0.21104573425258208               14           1           1           1
 -0.12986618460764043               17           1           1           1
  -2.3627170098877714E-011          18           1           1           1
   2.4907186421659016                2           1           2           1
  -1.0495360169057028E-011           3           1           2           1
  0.27885906444610115                4           1           2           1
   2.2803959241757266E-012           7           1           2           1
  -8.1298968367321228E-002          10           1           2           1
 -0.10251287242235176               13           1           2           1
   8.3331952449583468E-012          14           1           2           1
  -5.5329070318410611E-012          17           1           2           1
 -0.19693416754966653               18           1           2           1
   4.1469257275637848E-002           3           1           3           1
  -3.5116064515863105E-012           4           1           3           1
  -6.6235478366276140E-003           7           1           3           1
   1.2568130130369282E-012          10           1           3           1
   1.0969938065569229E-012          13           1           3           1
  -3.1440664865993645E-002          14           1           3           1
   2.4847450789740950E-002          17           1           3           1
   2.5813143940053851E-012          18           1           3           1
   4.7623782565639511E-002           4           1           4           1
   1.0002613971479835E-012           7           1           4           1
  -1.0848418420633733E-002          10           1           4           1
  -2.0571256069603243E-002          13           1           4           1
   2.9783438085587144E-012          14           1           4           1
  -1.6351997880748037E-012          17           1           4           1
  -3.2521397512929019E-002          18           1           4           1
   1.9384631643421343E-002           5           1           5           1
   1.6822006027733538E-012           8           1           5           1
   5.1091346865012044E-014           9           1           5           1
  -1.5988855014751564E-002          11           1           5           1
  -1.6647669937070411E-002          12           1           5           1
   1.7618562858645603E-012          16           1           5           1
   1.9384631643421205E-002           6           1           6           1
  -5.1106471485318217E-014           8           1           6           1
   1.6822754737096275E-012           9           1           6           1
  -1.6647669937070380E-002          11           1           6           1
   1.5988855014751460E-002          12           1           6           1
  -1.7615411082930188E-012          15           1           6           1
   1.9777700775193030E-002           7           1           7           1
   1.3480883076510963E-012          10           1           7           1
  -1.8920177924375281E-012          13           1           7           1
   1.8475251608829967E-002          14           1           7           1
   1.6070589863557149E-002          17           1           7           1
  -4.0059969230732406E-014          18           1           7           1
   2.2619920550657983E-002           8           1           8           1
  -1.3438921199829257E-012          11           1           8           1
  -1.4869355746682800E-012          12           1           8           1
   7.2883850979761156E-004          15           1           8           1
   2.3671611150195875E-002          16           1           8           1
   2.2619920550657872E-002           9           1           9           1
  -1.4872538693210674E-012          11           1           9           1
   1.3440286210364416E-012          12           1           9           1
  -2.3671611150195830E-002          15           1           9           1
   7.2883850979761590E-004          16           1           9           1
   2.5739099978719704E-002          10           1          10           1
  -1.6867221852003098E-002          13           1          10           1
   1.5859622642944160E-013          14           1          10           1
   2.4158435668608647E-012          17           1          10           1
   1.6910759875328953E-002          18           1          10           1
   2.7586133513369353E-002          11           1          11           1
   1.5184518139393921E-012          15           1          11           1
  -1.4596370986885709E-012          16           1          11           1
   2.7586133513369301E-002          12           1          12           1
  -1.4595763833669118E-012          15           1          12           1
  -1.5185890739344288E-012          16           1          12           1
   2.8943466027985223E-002          13           1          13           1
  -2.0700541975005038E-012          14           1          13           1
  -1.1910108316248724E-012          17           1          13           1
   5.2287252325998569E-003          18           1          13           1
   3.3603133367763466E-002          14           1          14           1
  -4.4114966435839986E-003          17           1          14           1
  -1.6960499844842492E-012          18           1          14           1
   2.4900378981591160E-002          15           1          15           1
   2.4900378981591142E-002          16           1          16           1
   3.6521325611713937E-002          17           1          17           1
   1.9571471179813393E-012          18           1          17           1
   2.6272929878709439E-002          18           1          18           1
   2.8655596245689807                2           2           1           1
  -1.0552343341577869E-011           3           2           1           1
  0.27977369835592608                4           2           1           1
   1.9812348376474498E-012           7           2           1           1
  -7.3365305306863970E-002          10           2           1           1
 -0.10951429294361895               13           2           1           1
   8.1774144747304156E-012          14           2           1           1
  -5.8329192170747390E-012          17           2           1           1
 -0.19463172174207555               18           2           1           1
  -2.0019043984056156E-010           2           2           2           1
 -0.26098777186841188                3           2           2           1
  -1.1212320216160906E-011           4           2           2           1
   5.6794873297509998E-002           7           2           2           1
   3.2672360910507292E-012          10           2           2           1
   4.1048147953609559E-012          13           2           2           1
  0.20718499204221560               14           2           2           1
 -0.13734175489123279               17           2           2           1
   7.9370107491580355E-012          18           2           2           1
   1.6828444020233757E-015           3           2           3           1
  -4.3683980612986673E-002           4           2           3           1
  -2.2590436465907970E-015           7           2           3           1
   1.5669177461383570E-002          10           2           3           1
   1.3583779586168132E-002          13           2           3           1
  -3.4948172827897750E-015          14           2           3           1
   3.2160897874176649E-002          18           2           3           1
  -1.8733793813105470E-015           4           2           4           1
   1.2427364916977395E-002           7           2           4           1
   2.2579594444183115E-015          10           2           4           1
  -4.0759496472420054E-015          13           2           4           1
   3.7042418162283430E-002          14           2           4           1
  -2.0348578965580483E-002          17           2           4           1
   5.1217710628215229E-015          18           2           4           1
  -3.4801805534612207E-015           5           2           5           1
   2.1008586421482602E-002           8           2           5           1
   6.3817440509074006E-004           9           2           5           1
   2.8937355983638113E-015          11           2           5           1
   3.1485231088979049E-015          12           2           5           1
   9.0647432616983159E-006          15           2           5           1
   2.1983762633756641E-002          16           2           5           1
  -3.0083798137087864E-015           6           2           6           1
  -6.3817440509067425E-004           8           2           6           1
   2.1008586421482470E-002           9           2           6           1
   2.5495556187082880E-015          11           2           6           1
  -2.3986888864069300E-015          12           2           6           1
  -2.1983762633756568E-002          15           2           6           1
   9.0647432616905096E-006          16           2           6           1
  -1.1237538677377756E-014           7           2           7           1
   1.6926177822479124E-002          10           2           7           1
  -2.3652827821905462E-002          13           2           7           1
  -8.0820766745759443E-015          14           2           7           1
  -1.1726730697603216E-014          17           2           7           1
  -4.6613892346523012E-004          18           2           7           1
   3.9370633489466123E-015           8           2           8           1
  -1.6670016258015653E-002          11           2           8           1
  -1.8446722781729832E-002          12           2           8           1
   4.2622155804750150E-015          16           2           8           1
   3.5603776329072578E-015           9           2           9           1
  -1.8446722781729829E-002          11           2           9           1
   1.6670016258015556E-002          12           2           9           1
  -3.4275967480956737E-015          15           2           9           1
   1.4054729602364091E-014          10           2          10           1
  -1.3270634591222574E-014          13           2          10           1
   1.9288787223773751E-003          14           2          10           1
   2.9893731647384368E-002          17           2          10           1
   2.3531523951625388E-015          18           2          10           1
  -4.6721524218917843E-015          11           2          11           1
   1.8950581503312872E-002          15           2          11           1
  -1.8215658971036226E-002          16           2          11           1
  -4.9474313534858538E-015          12           2          12           1
  -1.8215658971036247E-002          15           2          12           1
  -1.8950581503312885E-002          16           2          12           1
   1.6106907474444654E-014          13           2          13           1
  -2.5675411989679070E-002          14           2          13           1
  -1.4684144201882144E-002          17           2          13           1
  -3.1970953662252555E-015          18           2          13           1
  -4.1286418728248009E-015          14           2          14           1
  -1.0973860709029282E-014          17           2          14           1
  -2.1093087188543951E-002          18           2          14           1
   3.3509436545009486E-015          15           2          15           1
   4.6768144912334719E-015          16           2          16           1
  -9.6641444846667923E-015          17           2          17           1
   2.4401841958011195E-002          18           2          17           1
  -4.6130634034913243E-015          18           2          18           1
  0.83282687010296363                3           3           1           1
  -3.5201092908609954E-011           4           3           1           1
   2.2541773600234002E-002           7           3           1           1
   1.1915024522579643E-011          10           3           1           1
   5.2350346280150006E-012          13           3           1           1
 -0.19773535551992019               14           3           1           1
  0.16789752410952666               17           3           1           1
   1.5482108650655135E-011          18           3           1           1
   2.2381835967921759E-014           3           3           2           1
 -0.43797508606224445                4           3           2           1
  -2.0226875729889571E-015           7           3           2           1
  0.14823631424026482               10           3           2           1
   6.4928342636173336E-002          13           3           2           1
  -1.6564874472102531E-014          14           3           2           1
   1.3905543383430086E-014          17           3           2           1
  0.19283767110807415               18           3           2           1
  -8.9229087665209008E-003           3           3           3           1
   4.8134036361759114E-013           4           3           3           1
   4.8729516794433743E-003           7           3           3           1
  -6.1195623221599327E-014          10           3           3           1
  -1.9994422784108679E-013          13           3           3           1
   8.8386699452321152E-003          14           3           3           1
  -5.1879672698231880E-003          17           3           3           1
  -3.2433149048383125E-013          18           3           3           1
  -1.1944180764980349E-002           4           3           4           1
   3.6763560945507479E-014           7           3           4           1
   7.0093528521496841E-003          10           3           4           1
   2.2997672586228613E-003          13           3           4           1
  -3.3537040332320966E-013          14           3           4           1
   3.5647526597237800E-013          17           3           4           1
   9.8161657666450131E-003          18           3           4           1
   2.0484356415972214E-002           5           3           5           1
   7.8589044993915280E-013           8           3           5           1
   2.3860904571626484E-014           9           3           5           1
  -7.8134068257554624E-003          11           3           5           1
  -8.1353553959442933E-003          12           3           5           1
   4.2191077020969914E-013          16           3           5           1
   2.0484356415972071E-002           6           3           6           1
  -2.3877059183996518E-014           8           3           6           1
   7.8593339789771038E-013           9           3           6           1
  -8.1353553959442760E-003          11           3           6           1
   7.8134068257554208E-003          12           3           6           1
  -4.2172732320211459E-013          15           3           6           1
   1.9196470687816193E-002           7           3           7           1
   7.4734836374990010E-013          10           3           7           1
  -3.6015461446492480E-013          13           3           7           1
   1.7004888468475643E-003          14           3           7           1
   1.2389551617493791E-002          17           3           7           1
   2.3552514105684708E-013          18           3           7           1
   2.1116162747927641E-002           8           3           8           1
  -3.2834780901158656E-013          11           3           8           1
  -3.6325976948692329E-013          12           3           8           1
   3.4837035028880792E-004          15           3           8           1
   1.1314560574720287E-002          16           3           8           1
   2.1116162747927526E-002           9           3           9           1
  -3.6340570309933984E-013          11           3           9           1
   3.2841372850367367E-013          12           3           9           1
  -1.1314560574720261E-002          15           3           9           1
   3.4837035028880033E-004          16           3           9           1
   1.8367515066450738E-002          10           3          10           1
  -1.1775327154093348E-002          13           3          10           1
   2.5514659829362074E-013          14           3          10           1
   4.0500762465978113E-013          17           3          10           1
   1.8629015029194189E-003          18           3          10           1
   1.2573831241969782E-002          11           3          11           1
   3.3846449948304880E-013          15           3          11           1
  -3.2538902128287361E-013          16           3          11           1
   1.2573831241969768E-002          12           3          12           1
  -3.2534825528118816E-013          15           3          12           1
  -3.3856251135944149E-013          16           3          12           1
   8.8179570813869991E-003          13           3          13           1
  -2.3103047253059117E-014          14           3          13           1
  -5.6372961854123105E-013          17           3          13           1
  -7.4741626181590330E-003          18           3          13           1
  -4.1538107941043109E-003          14           3          14           1
   1.1362175399154240E-002          17           3          14           1
   3.5111627147421665E-013          18           3          14           1
   1.1041462600665828E-002          15           3          15           1
   1.1041462600665809E-002          16           3          16           1
   8.6778429720508650E-003          17           3          17           1
   7.5764047813287050E-015          18           3          17           1
  -4.6103765933037371E-003          18           3          18           1
  0.83743595466997811                4           4           1           1
   1.5239642880970905E-011           7           4           1           1
  -8.2084374513671010E-002          10           4           1           1
 -0.15870248507612295               13           4           1           1
   1.9469793832715965E-011          14           4           1           1
  -9.4478869172576196E-012          17           4           1           1
 -0.20093278144667531               18           4           1           1
  -2.2231348706380771E-014           4           4           2           1
  0.18960863646309137                7           4           2           1
   6.9111383282915995E-015          10           4           2           1
  -1.7999490786735350E-014          13           4           2           1
  0.24225383274271026               14           4           2           1
 -0.11744166073416210               17           4           2           1
   2.7939456304082455E-014          18           4           2           1
  -1.3009636541856218E-002           4           4           3           1
  -2.8242252286814207E-013           7           4           3           1
  -1.0555742276765895E-003          10           4           3           1
   7.8137926729246448E-003          13           4           3           1
  -4.5684463156892008E-013          14           4           3           1
   1.3731203674094417E-013          17           4           3           1
   8.3573492866206127E-003          18           4           3           1
   5.3000805106491120E-013           4           4           4           1
   1.4717997201903360E-003           7           4           4           1
  -2.1033706460588109E-013          10           4           4           1
  -1.9515389738239408E-013          13           4           4           1
   9.9228080032416240E-003          14           4           4           1
  -6.6984467963050196E-003          17           4           4           1
  -3.7675583681485991E-013          18           4           4           1
  -8.0300479807227099E-013           5           4           5           1
  -2.2410885471468137E-002           8           4           5           1
  -6.8077181474170568E-004           9           4           5           1
   3.6634410782721005E-013          11           4           5           1
   3.8137722147002506E-013          12           4           5           1
  -4.5291242324820187E-006          15           4           5           1
  -1.0984005745222868E-002          16           4           5           1
  -8.0348816250581934E-013           6           4           6           1
   6.8077181474165082E-004           8           4           6           1
  -2.2410885471467995E-002           9           4           6           1
   3.8167949703571402E-013          11           4           6           1
  -3.6660605107208255E-013          12           4           6           1
   1.0984005745222842E-002          15           4           6           1
  -4.5291242324698756E-006          16           4           6           1
  -7.4916461922924782E-013           7           4           7           1
  -2.1014013536274898E-002          10           4           7           1
   9.9803729624595872E-003          13           4           7           1
  -1.9284660673912768E-013          14           4           7           1
  -4.5017288508031328E-013          17           4           7           1
  -3.5399624140759196E-003          18           4           7           1
  -9.6849828504219637E-013           8           4           8           1
   9.5242422733138269E-003          11           4           8           1
   1.0539345265327670E-002          12           4           8           1
  -1.4618081051187559E-014          15           4           8           1
  -4.7551719506433443E-013          16           4           8           1
  -9.6809095028599357E-013           9           4           9           1
   1.0539345265327666E-002          11           4           9           1
  -9.5242422733137731E-003          12           4           9           1
   4.7503515877844738E-013          15           4           9           1
  -1.4554329963445412E-014          16           4           9           1
  -8.8802923348119123E-013          10           4          10           1
   5.7775485784450353E-013          13           4          10           1
  -1.0845623481624470E-002          14           4          10           1
  -9.8292372306372344E-003          17           4          10           1
   3.0421845598205266E-014          18           4          10           1
  -5.8772214525659727E-013          11           4          11           1
  -8.8519338569171165E-003          15           4          11           1
   8.5086469955332755E-003          16           4          11           1
  -5.8759247467676801E-013          12           4          12           1
   8.5086469955332963E-003          15           4          12           1
   8.8519338569171130E-003          16           4          12           1
  -3.8668721002999007E-013          13           4          13           1
   3.5484520291497322E-003          14           4          13           1
   1.2479987938315429E-002          17           4          13           1
   1.9916490331950421E-013          18           4          13           1
   1.4487413005359606E-013          14           4          14           1
  -3.8258111956235297E-013          17           4          14           1
  -7.3631225880881708E-003          18           4          14           1
  -4.6410065460827932E-013          15           4          15           1
  -4.6478099147151397E-013          16           4          16           1
  -3.4975841667339580E-013          17           4          17           1
   2.3931046366018208E-003          18           4          17           1
   2.1468178797168225E-013          18           4          18           1
  0.79385272482287128                5           5           1           1
   3.6528668978519363E-011           8           5           1           1
   1.1092342322438498E-012           9           5           1           1
 -0.20665754308167272               11           5           1           1
 -0.21517279155108168               12           5           1           1
   8.5209617139980764E-015          15           5           1           1
   1.9958423802535208E-011          16           5           1           1
   6.3990479581832460E-014           5           5           2           1
  0.45443296474040229                8           5           2           1
   1.3804236092261446E-002           9           5           2           1
  -2.0511370379949767E-014          11           5           2           1
  -1.9900747716405931E-014          12           5           2           1
   1.0231497409900897E-004          15           5           2           1
  0.24813368007571229               16           5           2           1
  -6.9552369691884674E-003           5           5           3           1
  -3.5931592987439864E-013           8           5           3           1
  -1.0912979368912432E-014           9           5           3           1
   6.2503777659580926E-003          11           5           3           1
   6.5079222954784448E-003          12           5           3           1
  -3.4243961832824965E-013          16           5           3           1
   3.4490333223995140E-013           5           5           4           1
   8.3337989060402566E-003           8           5           4           1
   2.5315445086631445E-004           9           5           4           1
  -2.6499896027543102E-013          11           5           4           1
  -2.7586006395852181E-013          12           5           4           1
   3.7483482406568298E-006          15           5           4           1
   9.0904723511899613E-003          16           5           4           1
  -3.8325712999664743E-003           7           5           5           1
   2.0505876185440697E-013          10           5           5           1
   2.2067048709162318E-013          13           5           5           1
  -9.3399822747209926E-003          14           5           5           1
   5.4096249104625509E-003          17           5           5           1
   2.8843949255973056E-013          18           5           5           1
  -6.0603540415204993E-014           8           5           7           1
  -1.8436857943116003E-015           9           5           7           1
  -1.2518574690285121E-003          11           5           7           1
  -1.3034397981228399E-003          12           5           7           1
   8.8391099994922229E-014          16           5           7           1
   5.4410876542547630E-003          10           5           8           1
   5.9218511396111626E-003          13           5           8           1
  -4.0665179353743287E-013          14           5           8           1
   2.3452943011042712E-013          17           5           8           1
   7.7474904178507680E-003          18           5           8           1
   1.6528303271513299E-004          10           5           9           1
   1.7988710673997634E-004          13           5           9           1
  -1.2348562042258950E-014          14           5           9           1
   7.1223383703929340E-015          17           5           9           1
   2.3534425349543120E-004          18           5           9           1
   7.5063436369426917E-014          11           5          10           1
   7.8141486337113264E-014          12           5          10           1
  -8.1140610577365956E-007          15           5          10           1
  -1.9678173682170733E-003          16           5          10           1
  -1.7121390026228478E-013          13           5          11           1
   7.2728023038538415E-003          14           5          11           1
  -4.2054980074932354E-003          17           5          11           1
  -2.2675955622768196E-013          18           5          11           1
  -1.7823351301793355E-013          13           5          12           1
   7.5724754624654604E-003          14           5          12           1
  -4.3787840145626906E-003          17           5          12           1
  -2.3606108929576097E-013          18           5          12           1
  -1.4081516357403520E-006          15           5          13           1
  -3.4150411565671262E-003          16           5          13           1
   2.5706953926674103E-013          16           5          14           1
   3.1889285559131595E-006          18           5          15           1
   2.3389536379836477E-013          17           5          16           1
   7.7337709855951030E-003          18           5          16           1
  0.79385272482286573                6           6           1           1