 &FCI NORB=          18 , NELEC=          18 , MS2=           0 ,
 ORBSYM=1,1,1,1,1,1,1,1,1,1,1,1,1,1,1,1,1,1,
 ISYM=0,
 /
   2.8655380192452555                1           1           1           1
   2.0019348635422207E-010           2           1           1           1
 -0.25957095195024915                3           1           1           1
   3.3651040287629996E-011           4           1           1           1
   6.4257963788288117E-002           7           1           1           1
  -9.4820401530526510E-012          10           1           1           1
  -1.2656806158695133E-011          13           1           1           1
  0.21104573425258197               14           1           1           1
 -0.12986618460764043               17           1           1           1
  -2.3627211298560269E-011          18           1           1           1
   2.4907186421659016                2           1           2           1
  -1.0495403157673167E-011           3           1           2           1
  0.27885906444610115                4           1           2           1
   2.2803842147922637E-012           7           1           2           1
  -8.1298968367321200E-002          10           1           2           1
 -0.10251287242235176               13           1           2           1
   8.3331952449583468E-012          14           1           2           1
  -5.5329144044158340E-012          17           1           2           1
 -0.19693416754966653               18           1           2           1
   4.1469257275637848E-002           3           1           3           1
  -3.5116033345050646E-012           4           1           3           1
  -6.6235478366276149E-003           7           1           3           1
   1.2568132298773627E-012          10           1           3           1
   1.0969940233973574E-012          13           1           3           1
  -3.1440664865993631E-002          14           1           3           1
   2.4847450789740946E-002          17           1           3           1
   2.5813171045108163E-012          18           1           3           1
   4.7623782565639504E-002           4           1           4           1
   1.0002623729299387E-012           7           1           4           1
  -1.0848418420633731E-002          10           1           4           1
  -2.0571256069603243E-002          13           1           4           1
   2.9783450011811041E-012          14           1           4           1
  -1.6352015227982797E-012          17           1           4           1
  -3.2521397512929019E-002          18           1           4           1
   1.9384631643421340E-002           5           1           5           1
   1.6822001690924848E-012           8           1           5           1
   5.1091075814468923E-014           9           1           5           1
  -1.5988855014751564E-002          11           1           5           1
  -1.6647669937070415E-002          12           1           5           1
   1.7618573836192600E-012          16           1           5           1
   1.9384631643421205E-002           6           1           6           1
  -5.1106254644883720E-014           8           1           6           1
   1.6822758464041243E-012           9           1           6           1
  -1.6647669937070380E-002          11           1           6           1
   1.5988855014751464E-002          12           1           6           1
  -1.7615407830323671E-012          15           1           6           1
   1.9777700775193034E-002           7           1           7           1
   1.3480874402893583E-012          10           1           7           1
  -1.8920152987725314E-012          13           1           7           1
   1.8475251608829967E-002          14           1           7           1
   1.6070589863557146E-002          17           1           7           1
  -4.0057800826387435E-014          18           1           7           1
   2.2619920550657983E-002           8           1           8           1
  -1.3438920115627084E-012          11           1           8           1
  -1.4869348699368679E-012          12           1           8           1
   7.2883850979761221E-004          15           1           8           1
   2.3671611150195875E-002          16           1           8           1
   2.2619920550657875E-002           9           1           9           1
  -1.4872530290643837E-012          11           1           9           1
   1.3440295968183968E-012          12           1           9           1
  -2.3671611150195827E-002          15           1           9           1
   7.2883850979761568E-004          16           1           9           1
   2.5739099978719711E-002          10           1          10           1
  -1.6867221852003098E-002          13           1          10           1
   1.5859622642944160E-013          14           1          10           1
   2.4158459521056441E-012          17           1          10           1
   1.6910759875328956E-002          18           1          10           1
   2.7586133513369353E-002          11           1          11           1
   1.5184520307798266E-012          15           1          11           1
  -1.4596375323694399E-012          16           1          11           1
   2.7586133513369301E-002          12           1          12           1
  -1.4595766002073463E-012          15           1          12           1
  -1.5185892907748633E-012          16           1          12           1
   2.8943466027985226E-002          13           1          13           1
  -2.0700533301387658E-012          14           1          13           1
  -1.1910127831887829E-012          17           1          13           1
   5.2287252325998569E-003          18           1          13           1
   3.3603133367763466E-002          14           1          14           1
  -4.4114966435839977E-003          17           1          14           1
  -1.6960530202503321E-012          18           1          14           1
   2.4900378981591160E-002          15           1          15           1
   2.4900378981591139E-002          16           1          16           1
   3.6521325611713937E-002          17           1          17           1
   1.9571471179813393E-012          18           1          17           1
   2.6272929878709446E-002          18           1          18           1
   2.8655596245689803                2           2           1           1
  -1.0552309026579110E-011           3           2           1           1
  0.27977369835592614                4           2           1           1
   1.9812415597009192E-012           7           2           1           1
  -7.3365305306863957E-002          10           2           1           1
 -0.10951429294361895               13           2           1           1
   8.1773754434522061E-012          14           2           1           1
  -5.8329036045634552E-012          17           2           1           1
 -0.19463172174207549               18           2           1           1
  -2.0019048701733211E-010           2           2           2           1
 -0.26098777186841188                3           2           2           1
  -1.1212336614718765E-011           4           2           2           1
   5.6794873297509998E-002           7           2           2           1
   3.2672337058059497E-012          10           2           2           1
   4.1048137111587835E-012          13           2           2           1
  0.20718499204221558               14           2           2           1
 -0.13734175489123279               17           2           2           1
   7.9369844030452441E-012          18           2           2           1
   1.6852838569114681E-015           3           2           3           1
  -4.3683980612986666E-002           4           2           3           1
  -2.2583931252873057E-015           7           2           3           1
   1.5669177461383570E-002          10           2           3           1
   1.3583779586168132E-002          13           2           3           1
  -3.4937330806172895E-015          14           2           3           1
   3.2160897874176642E-002          18           2           3           1
  -1.8743687157929401E-015           4           2           4           1
   1.2427364916977395E-002           7           2           4           1
   2.2577426039838144E-015          10           2           4           1
  -4.0759496472420054E-015          13           2           4           1
   3.7042418162283430E-002          14           2           4           1
  -2.0348578965580483E-002          17           2           4           1
   5.1209037010835345E-015          18           2           4           1
  -3.4801805534612207E-015           5           2           5           1
   2.1008586421482602E-002           8           2           5           1
   6.3817440509074006E-004           9           2           5           1
   2.8943861196673026E-015          11           2           5           1
   3.1457041832494426E-015          12           2           5           1
   9.0647432616984243E-006          15           2           5           1
   2.1983762633756641E-002          16           2           5           1
  -3.0080105073437835E-015           6           2           6           1
  -6.3817440509067415E-004           8           2           6           1
   2.1008586421482470E-002           9           2           6           1
   2.5500435096859064E-015          11           2           6           1
  -2.3991225672759242E-015          12           2           6           1
  -2.1983762633756572E-002          15           2           6           1
   9.0647432616904012E-006          16           2           6           1
  -1.1235587113467282E-014           7           2           7           1
   1.6926177822479127E-002          10           2           7           1
  -2.3652827821905462E-002          13           2           7           1
  -8.0812093128379558E-015          14           2           7           1
  -1.1729983304120672E-014          17           2           7           1
  -4.6613892346523099E-004          18           2           7           1
   3.9367380882948666E-015           8           2           8           1
  -1.6670016258015657E-002          11           2           8           1
  -1.8446722781729832E-002          12           2           8           1
   4.2619716349862058E-015          16           2           8           1
   3.5596525727044082E-015           9           2           9           1
  -1.8446722781729829E-002          11           2           9           1
   1.6670016258015553E-002          12           2           9           1
  -3.4284641098336621E-015          15           2           9           1
   1.4056030644971074E-014          10           2          10           1
  -1.3268845657637973E-014          13           2          10           1
   1.9288787223773743E-003          14           2          10           1
   2.9893731647384365E-002          17           2          10           1
   2.3531523951625388E-015          18           2          10           1
  -4.6726945229780270E-015          11           2          11           1
   1.8950581503312875E-002          15           2          11           1
  -1.8215658971036223E-002          16           2          11           1
  -4.9473229332686053E-015          12           2          12           1
  -1.8215658971036244E-002          15           2          12           1
  -1.8950581503312882E-002          16           2          12           1
   1.6109130088898249E-014          13           2          13           1
  -2.5675411989679063E-002          14           2          13           1
  -1.4684144201882150E-002          17           2          13           1
  -3.1970953662252555E-015          18           2          13           1
  -4.1286418728248009E-015          14           2          14           1
  -1.0974294389898276E-014          17           2          14           1
  -2.1093087188543955E-002          18           2          14           1
   3.3491005108077232E-015          15           2          15           1
   4.6759877870769517E-015          16           2          16           1
  -9.6645781655357865E-015          17           2          17           1
   2.4401841958011195E-002          18           2          17           1
  -4.6091602756703764E-015          18           2          18           1
  0.83282687010296352                3           3           1           1
  -3.5201064285672601E-011           4           3           1           1
   2.2541773600233989E-002           7           3           1           1
   1.1914996767004027E-011          10           3           1           1
   5.2350658530375682E-012          13           3           1           1
 -0.19773535551992022               14           3           1           1
  0.16789752410952674               17           3           1           1
   1.5482171100700270E-011          18           3           1           1
   2.2377932840100812E-014           3           3           2           1
 -0.43797508606224439                4           3           2           1
  -2.0365653607967715E-015           7           3           2           1
  0.14823631424026479               10           3           2           1
   6.4928342636173364E-002          13           3           2           1
  -1.6570078642530461E-014          14           3           2           1
   1.3912482277333993E-014          17           3           2           1
  0.19283767110807412               18           3           2           1
  -8.9229087665209025E-003           3           3           3           1
   4.8134055335297132E-013           4           3           3           1
   4.8729516794433735E-003           7           3           3           1
  -6.1196002692359697E-014          10           3           3           1
  -1.9994466152195578E-013          13           3           3           1
   8.8386699452321152E-003          14           3           3           1
  -5.1879672698231898E-003          17           3           3           1
  -3.2433149048383125E-013          18           3           3           1
  -1.1944180764980345E-002           4           3           4           1
   3.6763438972763074E-014           7           3           4           1
   7.0093528521496841E-003          10           3           4           1
   2.2997672586228608E-003          13           3           4           1
  -3.3536931912103718E-013          14           3           4           1
   3.5647423598031414E-013          17           3           4           1
   9.8161657666450131E-003          18           3           4           1
   2.0484356415972214E-002           5           3           5           1
   7.8588990783806656E-013           8           3           5           1
   2.3861555092929976E-014           9           3           5           1
  -7.8134068257554624E-003          11           3           5           1
  -8.1353553959442933E-003          12           3           5           1
   4.2191131231078538E-013          16           3           5           1
   2.0484356415972071E-002           6           3           6           1
  -2.3876950763779270E-014           8           3           6           1
   7.8593381802605222E-013           9           3           6           1
  -8.1353553959442760E-003          11           3           6           1
   7.8134068257554208E-003          12           3           6           1
  -4.2172775688298358E-013          15           3           6           1
   1.9196470687816197E-002           7           3           7           1
   7.4734901427120359E-013          10           3           7           1
  -3.6015212079992809E-013          13           3           7           1
   1.7004888468475634E-003          14           3           7           1
   1.2389551617493794E-002          17           3           7           1
   2.3552427369510909E-013          18           3           7           1
   2.1116162747927641E-002           8           3           8           1
  -3.2834780901158656E-013          11           3           8           1
  -3.6326004053746641E-013          12           3           8           1
   3.4837035028880770E-004          15           3           8           1
   1.1314560574720287E-002          16           3           8           1
   2.1116162747927526E-002           9           3           9           1
  -3.6340461889716735E-013          11           3           9           1
   3.2841416218454267E-013          12           3           9           1
  -1.1314560574720262E-002          15           3           9           1
   3.4837035028880054E-004          16           3           9           1
   1.8367515066450738E-002          10           3          10           1
  -1.1775327154093348E-002          13           3          10           1
   2.5514540567123101E-013          14           3          10           1
   4.0500724518902076E-013          17           3          10           1
   1.8629015029194185E-003          18           3          10           1
   1.2573831241969782E-002          11           3          11           1
   3.3846449948304880E-013          15           3          11           1
  -3.2538880444243912E-013          16           3          11           1
   1.2573831241969768E-002          12           3          12           1
  -3.2534825528118816E-013          15           3          12           1
  -3.3856077663596551E-013          16           3          12           1
   8.8179570813869956E-003          13           3          13           1
  -2.3104131455231602E-014          14           3          13           1
  -5.6372885959971031E-013          17           3          13           1
  -7.4741626181590338E-003          18           3          13           1
  -4.1538107941043109E-003          14           3          14           1
   1.1362175399154240E-002          17           3          14           1
   3.5111843987856162E-013          18           3          14           1
   1.1041462600665831E-002          15           3          15           1
   1.1041462600665811E-002          16           3          16           1
   8.6778429720508650E-003          17           3          17           1
   7.5738026961147398E-015          18           3          17           1
  -4.6103765933037371E-003          18           3          18           1
  0.83743595466997811                4           4           1           1
   1.5239642880970905E-011           7           4           1           1
  -8.2084374513670941E-002          10           4           1           1
 -0.15870248507612289               13           4           1           1
   1.9469703627095214E-011          14           4           1           1
  -9.4478036505307728E-012          17           4           1           1
 -0.20093278144667531               18           4           1           1
  -2.2301605007157832E-014           4           4           2           1
  0.18960863646309137                7           4           2           1
   6.8972605404837850E-015          10           4           2           1
  -1.8023776915399026E-014          13           4           2           1
  0.24225383274271023               14           4           2           1
 -0.11744166073416211               17           4           2           1
   2.7922109069322687E-014          18           4           2           1
  -1.3009636541856218E-002           4           4           3           1
  -2.8242263806462289E-013           7           4           3           1
  -1.0555742276765895E-003          10           4           3           1
   7.8137926729246431E-003          13           4           3           1
  -4.5684441472848558E-013          14           4           3           1
   1.3731274824861986E-013          17           4           3           1
   8.3573492866206127E-003          18           4           3           1
   5.3000735310976266E-013           4           4           4           1
   1.4717997201903360E-003           7           4           4           1
  -2.1033752539180439E-013          10           4           4           1
  -1.9515387705360335E-013          13           4           4           1
   9.9228080032416222E-003          14           4           4           1
  -6.6984467963050204E-003          17           4           4           1
  -3.7675591813002285E-013          18           4           4           1
  -8.0300496070259686E-013           5           4           5           1
  -2.2410885471468141E-002           8           4           5           1
  -6.8077181474170590E-004           9           4           5           1
   3.6634291520482032E-013          11           4           5           1
   3.8137803462165443E-013          12           4           5           1
  -4.5291242324818019E-006          15           4           5           1
  -1.0984005745222866E-002          16           4           5           1
  -8.0348748487946153E-013           6           4           6           1
   6.8077181474165104E-004           8           4           6           1
  -2.2410885471467995E-002           9           4           6           1
   3.8168079807832100E-013          11           4           6           1
  -3.6660691843382054E-013          12           4           6           1
   1.0984005745222843E-002          15           4           6           1
  -4.5291242324696588E-006          16           4           6           1
  -7.4916356213212965E-013           7           4           7           1
  -2.1014013536274898E-002          10           4           7           1
   9.9803729624595872E-003          13           4           7           1
  -1.9284541411673795E-013          14           4           7           1
  -4.5017185508824942E-013          17           4           7           1
  -3.5399624140759187E-003          18           4           7           1
  -9.6849785136132738E-013           8           4           8           1
   9.5242422733138286E-003          11           4           8           1
   1.0539345265327670E-002          12           4           8           1
  -1.4617213689449571E-014          15           4           8           1
  -4.7551968872933115E-013          16           4           8           1
  -9.6809019134447283E-013           9           4           9           1
   1.0539345265327668E-002          11           4           9           1
  -9.5242422733137714E-003          12           4           9           1
   4.7503580929975087E-013          15           4           9           1
  -1.4553896282576417E-014          16           4           9           1
  -8.8802836611945324E-013          10           4          10           1
   5.7775781229542356E-013          13           4          10           1
  -1.0845623481624468E-002          14           4          10           1
  -9.8292372306372326E-003          17           4          10           1
   3.0421845598205266E-014          18           4          10           1
  -5.8772214525659727E-013          11           4          11           1
  -8.8519338569171147E-003          15           4          11           1
   8.5086469955332755E-003          16           4          11           1
  -5.8759204099589901E-013          12           4          12           1
   8.5086469955332946E-003          15           4          12           1
   8.8519338569171130E-003          16           4          12           1
  -3.8668791476140218E-013          13           4          13           1
   3.5484520291497318E-003          14           4          13           1
   1.2479987938315432E-002          17           4          13           1
   1.9916620436211119E-013          18           4          13           1
   1.4487391321316156E-013          14           4          14           1
  -3.8258084851180985E-013          17           4          14           1
  -7.3631225880881725E-003          18           4          14           1
  -4.6410184723066905E-013          15           4          15           1
  -4.6478212988379508E-013          16           4          16           1
  -3.4975738668133194E-013          17           4          17           1
   2.3931046366018212E-003          18           4          17           1
   2.1468157113124775E-013          18           4          18           1
  0.79385272482287117                5           5           1           1
   3.6528670713242839E-011           8           5           1           1
   1.1092099461151861E-012           9           5           1           1
 -0.20665754308167278               11           5           1           1
 -0.21517279155108168               12           5           1           1
   8.5209617139980764E-015          15           5           1           1
   1.9958378699724832E-011          16           5           1           1
   6.3990479581832460E-014           5           5           2           1
  0.45443296474040229                8           5           2           1
   1.3804236092261446E-002           9           5           2           1
  -2.0506166209521837E-014          11           5           2           1
  -1.9912890780737769E-014          12           5           2           1
   1.0231497409901591E-004          15           5           2           1
  0.24813368007571232               16           5           2           1
  -6.9552369691884683E-003           5           5           3           1
  -3.5931598408450727E-013           8           5           3           1
  -1.0912928546935596E-014           9           5           3           1
   6.2503777659580926E-003          11           5           3           1
   6.5079222954784448E-003          12           5           3           1
  -3.4243898135947332E-013          16           5           3           1
   3.4490338645006002E-013           5           5           4           1
   8.3337989060402549E-003           8           5           4           1
   2.5315445086631445E-004           9           5           4           1
  -2.6499867567236074E-013          11           5           4           1
  -2.7586013849742116E-013          12           5           4           1
   3.7483482406565588E-006          15           5           4           1
   9.0904723511899595E-003          16           5           4           1
  -3.8325712999664752E-003           7           5           5           1
   2.0505819264826641E-013          10           5           5           1
   2.2066907762879895E-013          13           5           5           1
  -9.3399822747209909E-003          14           5           5           1
   5.4096249104625517E-003          17           5           5           1
   2.8843941124456762E-013          18           5           5           1
  -6.0603648835422241E-014           8           5           7           1
  -1.8436857943116003E-015           9           5           7           1
  -1.2518574690285125E-003          11           5           7           1
  -1.3034397981228399E-003          12           5           7           1
   8.8391099994922229E-014          16           5           7           1
   5.4410876542547648E-003          10           5           8           1
   5.9218511396111635E-003          13           5           8           1
  -4.0665387723848312E-013          14           5           8           1
   2.3453027714337438E-013          17           5           8           1
   7.7474904178507602E-003          18           5           8           1
   1.6528303271513308E-004          10           5           9           1
   1.7988710673997634E-004          13           5           9           1
  -1.2348466433415028E-014          14           5           9           1
   7.1223138064374636E-015          17           5           9           1
   2.3534425349543126E-004          18           5           9           1
   7.5063056898666547E-014          11           5          10           1
   7.8142136858416755E-014          12           5          10           1
  -8.1140610577371377E-007          15           5          10           1
  -1.9678173682170733E-003          16           5          10           1
  -1.7121525551500039E-013          13           5          11           1
   7.2728023038538415E-003          14           5          11           1
  -4.2054980074932337E-003          17           5          11           1
  -2.2675611388578432E-013          18           5          11           1
  -1.7823156145402308E-013          13           5          12           1
   7.5724754624654604E-003          14           5          12           1
  -4.3787840145626906E-003          17           5          12           1
  -2.3605770116397196E-013          18           5          12           1
  -1.4081516357403114E-006          15           5          13           1
  -3.4150411565671271E-003          16           5          13           1
   2.5706985097486562E-013          16           5          14           1
   3.1889285559131562E-006          18           5          15           1
   2.3389406730855988E-013          17           5          16           1
   7.7337709855950926E-003          18           5          16           1
  0.79385272482286573                6           6           1           1