 &FCI NORB=          18 , NELEC=          18 , MS2=           0 ,
 ORBSYM=1,1,1,1,1,1,1,1,1,1,1,1,1,1,1,1,1,1,
 ISYM=0,
 /
   2.8655380192452555                1           1           1           1
   2.0019337464074072E-010           2           1           1           1
 -0.25957095195024915                3           1           1           1
   3.3651049611768680E-011           4           1           1           1
   6.4257963788288103E-002           7           1           1           1
  -9.4820470919465549E-012          10           1           1           1
  -1.2656792280907325E-011          13           1           1           1
  0.21104573425258205               14           1           1           1
 -0.12986618460764043               17           1           1           1
  -2.3627211298560269E-011          18           1           1           1
   2.4907186421659011                2           1           2           1
  -1.0495424408035747E-011           3           1           2           1
  0.27885906444610115                4           1           2           1
   2.2803772758983598E-012           7           1           2           1
  -8.1298968367321228E-002          10           1           2           1
 -0.10251287242235174               13           1           2           1
   8.3332368783217703E-012          14           1           2           1
  -5.5329109349688821E-012          17           1           2           1
 -0.19693416754966656               18           1           2           1
   4.1469257275637848E-002           3           1           3           1
  -3.5116036258843984E-012           4           1           3           1
  -6.6235478366276140E-003           7           1           3           1
   1.2568143140795351E-012          10           1           3           1
   1.0969944570782264E-012          13           1           3           1
  -3.1440664865993638E-002          14           1           3           1
   2.4847450789740946E-002          17           1           3           1
   2.5813179718725543E-012          18           1           3           1
   4.7623782565639504E-002           4           1           4           1
   1.0002623729299387E-012           7           1           4           1
  -1.0848418420633731E-002          10           1           4           1
  -2.0571256069603239E-002          13           1           4           1
   2.9783432664576281E-012          14           1           4           1
  -1.6352015227982797E-012          17           1           4           1
  -3.2521397512929019E-002          18           1           4           1
   1.9384631643421343E-002           5           1           5           1
   1.6822005519513770E-012           8           1           5           1
   5.1091130024577547E-014           9           1           5           1
  -1.5988855014751564E-002          11           1           5           1
  -1.6647669937070411E-002          12           1           5           1
   1.7618568415181737E-012          16           1           5           1
   1.9384631643421205E-002           6           1           6           1
  -5.1106390170155280E-014           8           1           6           1
   1.6822758464041243E-012           9           1           6           1
  -1.6647669937070380E-002          11           1           6           1
   1.5988855014751464E-002          12           1           6           1
  -1.7615412167132360E-012          15           1           6           1
   1.9777700775193030E-002           7           1           7           1
   1.3480876571297928E-012          10           1           7           1
  -1.8920169250757901E-012          13           1           7           1
   1.8475251608829971E-002          14           1           7           1
   1.6070589863557149E-002          17           1           7           1
  -4.0059535549863412E-014          18           1           7           1
   2.2619920550657983E-002           8           1           8           1
  -1.3438912255161334E-012          11           1           8           1
  -1.4869355204581713E-012          12           1           8           1
   7.2883850979761178E-004          15           1           8           1
   2.3671611150195875E-002          16           1           8           1
   2.2619920550657875E-002           9           1           9           1
  -1.4872536795856872E-012          11           1           9           1
   1.3440291631375278E-012          12           1           9           1
  -2.3671611150195827E-002          15           1           9           1
   7.2883850979761611E-004          16           1           9           1
   2.5739099978719704E-002          10           1          10           1
  -1.6867221852003098E-002          13           1          10           1
   1.5859514222726911E-013          14           1          10           1
   2.4158459521056441E-012          17           1          10           1
   1.6910759875328956E-002          18           1          10           1
   2.7586133513369349E-002          11           1          11           1
   1.5184518139393921E-012          15           1          11           1
  -1.4596362313268330E-012          16           1          11           1
   2.7586133513369301E-002          12           1          12           1
  -1.4595757328456083E-012          15           1          12           1
  -1.5185895076152978E-012          16           1          12           1
   2.8943466027985226E-002          13           1          13           1
  -2.0700516970592435E-012          14           1          13           1
  -1.1910113127395865E-012          17           1          13           1
   5.2287252325998578E-003          18           1          13           1
   3.3603133367763466E-002          14           1          14           1
  -4.4114966435839995E-003          17           1          14           1
  -1.6960521528885941E-012          18           1          14           1
   2.4900378981591160E-002          15           1          15           1
   2.4900378981591139E-002          16           1          16           1
   3.6521325611713944E-002          17           1          17           1
   1.9571473348217738E-012          18           1          17           1
   2.6272929878709442E-002          18           1          18           1
   2.8655596245689803                2           2           1           1
  -1.0552342853686891E-011           3           2           1           1
  0.27977369835592608                4           2           1           1
   1.9812380902539672E-012           7           2           1           1
  -7.3365305306863957E-002          10           2           1           1
 -0.10951429294361895               13           2           1           1
   8.1773234017479268E-012          14           2           1           1
  -5.8329036045634552E-012          17           2           1           1
 -0.19463172174207549               18           2           1           1
  -2.0019050679046923E-010           2           2           2           1
 -0.26098777186841188                3           2           2           1
  -1.1212331356338229E-011           4           2           2           1
   5.6794873297509992E-002           7           2           2           1
   3.2672337058059497E-012          10           2           2           1
   4.1047998333709756E-012          13           2           2           1
  0.20718499204221558               14           2           2           1
 -0.13734175489123279               17           2           2           1
   7.9370329753025715E-012          18           2           2           1
   1.6850670164769710E-015           3           2           3           1
  -4.3683980612986680E-002           4           2           3           1
  -2.2588268061562999E-015           7           2           3           1
   1.5669177461383570E-002          10           2           3           1
   1.3583779586168132E-002          13           2           3           1
  -3.4928657188793011E-015          14           2           3           1
   3.2160897874176649E-002          18           2           3           1
  -1.8730558147246959E-015           4           2           4           1
   1.2427364916977393E-002           7           2           4           1
   2.2590436465907970E-015          10           2           4           1
  -4.0748654450695199E-015          13           2           4           1
   3.7042418162283444E-002          14           2           4           1
  -2.0348578965580483E-002          17           2           4           1
   5.1261078715114650E-015          18           2           4           1
  -3.4797333200650704E-015           5           2           5           1
   2.1008586421482602E-002           8           2           5           1
   6.3817440509074006E-004           9           2           5           1
   2.8938440185810599E-015          11           2           5           1
   3.1465715449874310E-015          12           2           5           1
   9.0647432616984243E-006          15           2           5           1
   2.1983762633756638E-002          16           2           5           1
  -3.0088778690817719E-015           6           2           6           1
  -6.3817440509067436E-004           8           2           6           1
   2.1008586421482470E-002           9           2           6           1
   2.5491761479479180E-015          11           2           6           1
  -2.3986888864069300E-015          12           2           6           1
  -2.1983762633756572E-002          15           2           6           1
   9.0647432616904012E-006          16           2           6           1
  -1.1235410930614254E-014           7           2           7           1
   1.6926177822479124E-002          10           2           7           1
  -2.3652827821905462E-002          13           2           7           1
  -8.0815074684353894E-015          14           2           7           1
  -1.1730335669826730E-014          17           2           7           1
  -4.6613892346523110E-004          18           2           7           1
   3.9371107827916585E-015           8           2           8           1
  -1.6670016258015657E-002          11           2           8           1
  -1.8446722781729836E-002          12           2           8           1
   4.2617547945517087E-015          16           2           8           1
   3.5612788759631364E-015           9           2           9           1
  -1.8446722781729829E-002          11           2           9           1
   1.6670016258015553E-002          12           2           9           1
  -3.4280304289646679E-015          15           2           9           1
   1.4056681166274565E-014          10           2          10           1
  -1.3268899867746597E-014          13           2          10           1
   1.9288787223773747E-003          14           2          10           1
   2.9893731647384368E-002          17           2          10           1
   2.3535860760315330E-015          18           2          10           1
  -4.6732366240642698E-015          11           2          11           1
   1.8950581503312868E-002          15           2          11           1
  -1.8215658971036226E-002          16           2          11           1
  -4.9473229332686053E-015          12           2          12           1
  -1.8215658971036244E-002          15           2          12           1
  -1.8950581503312885E-002          16           2          12           1
   1.6108642197920631E-014          13           2          13           1
  -2.5675411989679063E-002          14           2          13           1
  -1.4684144201882146E-002          17           2          13           1
  -3.1979627279632439E-015          18           2          13           1
  -4.1283166121730552E-015          14           2          14           1
  -1.0974944911201767E-014          17           2          14           1
  -2.1093087188543962E-002          18           2          14           1
   3.3521362768906826E-015          15           2          15           1
   4.6763130477286974E-015          16           2          16           1
  -9.6654455272737749E-015          17           2          17           1
   2.4401841958011192E-002          18           2          17           1
  -4.6117623608843417E-015          18           2          18           1
  0.83282687010296352                3           3           1           1
  -3.5201024278612436E-011           4           3           1           1
   2.2541773600234002E-002           7           3           1           1
   1.1914996767004027E-011          10           3           1           1
   5.2350346280150006E-012          13           3           1           1
 -0.19773535551992016               14           3           1           1
  0.16789752410952660               17           3           1           1
   1.5482060078397808E-011          18           3           1           1
   2.2389642223563655E-014           3           3           2           1
 -0.43797508606224445                4           3           2           1
  -2.0296264668928643E-015           7           3           2           1
  0.14823631424026482               10           3           2           1
   6.4928342636173378E-002          13           3           2           1
  -1.6570078642530461E-014          14           3           2           1
   1.3905543383430086E-014          17           3           2           1
  0.19283767110807409               18           3           2           1
  -8.9229087665209025E-003           3           3           3           1
   4.8134029839605420E-013           4           3           3           1
   4.8729516794433743E-003           7           3           3           1
  -6.1195623221599327E-014          10           3           3           1
  -1.9994466152195578E-013          13           3           3           1
   8.8386699452321152E-003          14           3           3           1
  -5.1879672698231898E-003          17           3           3           1
  -3.2433214100513474E-013          18           3           3           1
  -1.1944180764980345E-002           4           3           4           1
   3.6763615155616103E-014           7           3           4           1
   7.0093528521496841E-003          10           3           4           1
   2.2997672586228608E-003          13           3           4           1
  -3.3537113515967609E-013          14           3           4           1
   3.5647439861064001E-013          17           3           4           1
   9.8161657666450148E-003          18           3           4           1
   2.0484356415972214E-002           5           3           5           1
   7.8589046349167996E-013           8           3           5           1
   2.3861121412060982E-014           9           3           5           1
  -7.8134068257554624E-003          11           3           5           1
  -8.1353553959442933E-003          12           3           5           1
   4.2191152915121988E-013          16           3           5           1
   2.0484356415972071E-002           6           3           6           1
  -2.3877167604213767E-014           8           3           6           1
   7.8593295066431423E-013           9           3           6           1
  -8.1353553959442743E-003          11           3           6           1
   7.8134068257554208E-003          12           3           6           1
  -4.2172688952124560E-013          15           3           6           1
   1.9196470687816193E-002           7           3           7           1
   7.4735009847337608E-013          10           3           7           1
  -3.6015114501797285E-013          13           3           7           1
   1.7004888468475634E-003          14           3           7           1
   1.2389551617493791E-002          17           3           7           1
   2.3552861050379903E-013          18           3           7           1
   2.1116162747927641E-002           8           3           8           1
  -3.2834694164984857E-013          11           3           8           1
  -3.6326025737790091E-013          12           3           8           1
   3.4837035028880748E-004          15           3           8           1
   1.1314560574720285E-002          16           3           8           1
   2.1116162747927523E-002           9           3           9           1
  -3.6340461889716735E-013          11           3           9           1
   3.2841394534410817E-013          12           3           9           1
  -1.1314560574720262E-002          15           3           9           1
   3.4837035028880054E-004          16           3           9           1
   1.8367515066450735E-002          10           3          10           1
  -1.1775327154093344E-002          13           3          10           1
   2.5514508041057926E-013          14           3          10           1
   4.0500849202151912E-013          17           3          10           1
   1.8629015029194198E-003          18           3          10           1
   1.2573831241969785E-002          11           3          11           1
   3.3846449948304880E-013          15           3          11           1
  -3.2538923812330811E-013          16           3          11           1
   1.2573831241969768E-002          12           3          12           1
  -3.2534825528118816E-013          15           3          12           1
  -3.3856012611466202E-013          16           3          12           1
   8.8179570813869991E-003          13           3          13           1
  -2.3105215657404088E-014          14           3          13           1
  -5.6372918486036205E-013          17           3          13           1
  -7.4741626181590330E-003          18           3          13           1
  -4.1538107941043109E-003          14           3          14           1
   1.1362175399154241E-002          17           3          14           1
   3.5111757251682363E-013          18           3          14           1
   1.1041462600665828E-002          15           3          15           1
   1.1041462600665811E-002          16           3          16           1
   8.6778429720508650E-003          17           3          17           1
   7.5738026961147398E-015          18           3          17           1
  -4.6103765933037371E-003          18           3          18           1
  0.83743595466997822                4           4           1           1
   1.5239642880970905E-011           7           4           1           1
  -8.2084374513670927E-002          10           4           1           1
 -0.15870248507612289               13           4           1           1
   1.9469689749307406E-011          14           4           1           1
  -9.4478730394698118E-012          17           4           1           1
 -0.20093278144667534               18           4           1           1
  -2.2306090893646491E-014           4           4           2           1
  0.18960863646309134                7           4           2           1
   6.8972605404837850E-015          10           4           2           1
  -1.8023776915399026E-014          13           4           2           1
  0.24225383274271026               14           4           2           1
 -0.11744166073416212               17           4           2           1
   2.7908231281514873E-014          18           4           2           1
  -1.3009636541856218E-002           4           4           3           1
  -2.8242273970857656E-013           7           4           3           1
  -1.0555742276765895E-003          10           4           3           1
   7.8137926729246431E-003          13           4           3           1
  -4.5684452314870283E-013          14           4           3           1
   1.3731257884203041E-013          17           4           3           1
   8.3573492866206127E-003          18           4           3           1
   5.3000738127360815E-013           4           4           4           1
   1.4717997201903355E-003           7           4           4           1
  -2.1033722723620696E-013          10           4           4           1
  -1.9515422264304583E-013          13           4           4           1
   9.9228080032416222E-003          14           4           4           1
  -6.6984467963050204E-003          17           4           4           1
  -3.7675570128958835E-013          18           4           4           1
  -8.0300448636414640E-013           5           4           5           1
  -2.2410885471468137E-002           8           4           5           1
  -6.8077181474170579E-004           9           4           5           1
   3.6634378256655831E-013          11           4           5           1
   3.8137911882382691E-013          12           4           5           1
  -4.5291242324815850E-006          15           4           5           1
  -1.0984005745222868E-002          16           4           5           1
  -8.0348878592206852E-013           6           4           6           1
   6.8077181474165093E-004           8           4           6           1
  -2.2410885471467992E-002           9           4           6           1
   3.8168079807832100E-013          11           4           6           1
  -3.6660691843382054E-013          12           4           6           1
   1.0984005745222843E-002          15           4           6           1
  -4.5291242324692251E-006          16           4           6           1
  -7.4916288450577184E-013           7           4           7           1
  -2.1014013536274901E-002          10           4           7           1
   9.9803729624595890E-003          13           4           7           1
  -1.9284660673912768E-013          14           4           7           1
  -4.5017245139944428E-013          17           4           7           1
  -3.5399624140759166E-003          18           4           7           1
  -9.6849701110464370E-013           8           4           8           1
   9.5242422733138286E-003          11           4           8           1
   1.0539345265327670E-002          12           4           8           1
  -1.4617213689449571E-014          15           4           8           1
  -4.7551518929031533E-013          16           4           8           1
  -9.6809062502534182E-013           9           4           9           1
   1.0539345265327668E-002          11           4           9           1
  -9.5242422733137714E-003          12           4           9           1
   4.7503580929975087E-013          15           4           9           1
  -1.4553896282576417E-014          16           4           9           1
  -8.8802923348119123E-013          10           4          10           1
   5.7775312312102756E-013          13           4          10           1
  -1.0845623481624468E-002          14           4          10           1
  -9.8292372306372309E-003          17           4          10           1
   3.0421845598205266E-014          18           4          10           1
  -5.8772257893746627E-013          11           4          11           1
  -8.8519338569171165E-003          15           4          11           1
   8.5086469955332738E-003          16           4          11           1
  -5.8759204099589901E-013          12           4          12           1
   8.5086469955332946E-003          15           4          12           1
   8.8519338569171130E-003          16           4          12           1
  -3.8668894475346605E-013          13           4          13           1
   3.5484520291497322E-003          14           4          13           1
   1.2479987938315429E-002          17           4          13           1
   1.9916533700037320E-013          18           4          13           1
   1.4487467215468230E-013          14           4          14           1
  -3.8258133640278746E-013          17           4          14           1
  -7.3631225880881716E-003          18           4          14           1
  -4.6410184723066905E-013          15           4          15           1
  -4.6477790149532239E-013          16           4          16           1
  -3.4975581458818183E-013          17           4          17           1
   2.3931046366018208E-003          18           4          17           1
   2.1468200481211674E-013          18           4          18           1
  0.79385272482287128                5           5           1           1
   3.6528676784775005E-011           8           5           1           1
   1.1092307627968978E-012           9           5           1           1
 -0.20665754308167272               11           5           1           1
 -0.21517279155108165               12           5           1           1
   8.5209617139980764E-015          15           5           1           1
   1.9958385638618736E-011          16           5           1           1
   6.3987443815749501E-014           5           5           2           1
  0.45443296474040229                8           5           2           1
   1.3804236092261448E-002           9           5           2           1
  -2.0506166209521837E-014          11           5           2           1
  -1.9902482439881908E-014          12           5           2           1
   1.0231497409901591E-004          15           5           2           1
  0.24813368007571227               16           5           2           1
  -6.9552369691884674E-003           5           5           3           1
  -3.5931607895219736E-013           8           5           3           1
  -1.0912931935067385E-014           9           5           3           1
   6.2503777659580926E-003          11           5           3           1
   6.5079222954784440E-003          12           5           3           1
  -3.4243919819990781E-013          16           5           3           1
   3.4490338136786234E-013           5           5           4           1
   8.3337989060402566E-003           8           5           4           1
   2.5315445086631434E-004           9           5           4           1
  -2.6499889251279524E-013          11           5           4           1
  -2.7586046375807291E-013          12           5           4           1
   3.7483482406565588E-006          15           5           4           1
   9.0904723511899613E-003          16           5           4           1
  -3.8325712999664752E-003           7           5           5           1
   2.0505775896739742E-013          10           5           5           1
   2.2067070393205768E-013          13           5           5           1
  -9.3399822747209961E-003          14           5           5           1
   5.4096249104625491E-003          17           5           5           1
   2.8843680915935366E-013          18           5           5           1
  -6.0603675940476553E-014           8           5           7           1
  -1.8437942145288488E-015           9           5           7           1
  -1.2518574690285121E-003          11           5           7           1
  -1.3034397981228399E-003          12           5           7           1
   8.8391303282829570E-014          16           5           7           1
   5.4410876542547639E-003          10           5           8           1
   5.9218511396111617E-003          13           5           8           1
  -4.0665127515326915E-013          14           5           8           1
   2.3452897610076739E-013          17           5           8           1
   7.7474904178507645E-003          18           5           8           1
   1.6528303271513302E-004          10           5           9           1
   1.7988710673997625E-004          13           5           9           1
  -1.2348513867260075E-014          14           5           9           1
   7.1223138064374636E-015          17           5           9           1
   2.3534425349543123E-004          18           5           9           1
   7.5063165318883796E-014          11           5          10           1
   7.8141757387656385E-014          12           5          10           1
  -8.1140610577365956E-007          15           5          10           1
  -1.9678173682170733E-003          16           5          10           1
  -1.7121503867456589E-013          13           5          11           1
   7.2728023038538423E-003          14           5          11           1
  -4.2054980074932337E-003          17           5          11           1
  -2.2675871597099828E-013          18           5          11           1
  -1.7823329617749906E-013          13           5          12           1
   7.5724754624654604E-003          14           5          12           1
  -4.3787840145626915E-003          17           5          12           1
  -2.3606030324918592E-013          18           5          12           1
  -1.4081516357403114E-006          15           5          13           1
  -3.4150411565671262E-003          16           5          13           1
   2.5706990518497425E-013          16           5          14           1
   3.1889285559131570E-006          18           5          15           1
   2.3389536835116687E-013          17           5          16           1
   7.7337709855950952E-003          18           5          16           1
  0.79385272482286573                6           6           1           1